                         Program Version 5.0.4 -  RELEASE  -
|  1> !HF DEF2-SVP
|  2> * xyz 0 1
|  3> H  0.0  0.0  0.0
|  4> H  0.0  0.0  10.0
|  5> *
|  6>
|  7>                          ****END OF INPUT****

CARTESIAN COORDINATES (ANGSTROEM)
---------------------------------
  H      0.000000    0.000000    0.000000
  H      0.000000    0.000000   10.000000

 Total Charge           Charge          ....    0
 Multiplicity           Mult            ....    1
 Number of Electrons    NEL             ....    2
 Basis Dimension        Dim             ....   10

ORBITAL ENERGIES
----------------

  NO   OCC          E(Eh)            E(eV)
   0   2.0000      -0.243919        -6.6374
   1   0.0000      -0.191000        -5.1974
   2   0.0000       0.628011        17.0890
   3   0.0000       0.628066        17.0906
   4   0.0000       1.619541        44.0700
   5   0.0000       1.619563        44.0705

MULLIKEN ATOMIC CHARGES
-----------------------
   0 H :   -0.000587
   1 H :    0.000587
Sum of atomic charges:   -0.0000000

LOEWDIN ATOMIC CHARGES
----------------------
   0 H :   -0.000587
   1 H :    0.000587

  Mayer bond orders larger than 0.100000
B(  0-H ,  1-H ) :   1.0000

FINAL SINGLE POINT ENERGY        -0.733848023918

DIPOLE MOMENT
-------------
                                X             Y             Z
Electronic contribution:      0.00000      -0.00000       0.01109
Nuclear contribution   :      0.00000       0.00000       0.00000
                        -----------------------------------------
Total Dipole Moment    :      0.00000      -0.00000       0.01109
                        -----------------------------------------
Magnitude (a.u.)       :      0.01109
Magnitude (Debye)      :      0.02818

Rotational constants in cm-1:     0.000000     0.334477     0.334477
Rotational constants in MHz :     0.000000 10027.370629 10027.370629

                             ****ORCA TERMINATED NORMALLY****
TOTAL RUN TIME: 0 days 0 hours 0 minutes 0 seconds 127 msec
