                         Program Version 5.0.4 -  RELEASE  -
|  1> !B3LYP DEF2-SVP Freq
|  2> * xyz 0 1
|  3> C       -0.877758000     -0.745566000     -1.528263000
|  4> C       -1.693562000     -0.449057000     -0.339976000
|  5> C        0.366164000     -0.303588000     -1.770356000
|  6> C       -1.235996000     -0.137588000      0.882696000
|  7> H        0.902742000     -0.592336000     -2.678104000
|  8> H        0.885077000      0.369701000     -1.080474000
|  9> H       -1.360979000     -1.376860000     -2.284822000
| 10> H       -2.779327000     -0.512909000     -0.487493000
| 11> H       -0.165386000     -0.106731000      1.108760000
| 12> H       -1.922331000      0.085479000      1.704285000
| 13> **                         ****END OF INPUT****

CARTESIAN COORDINATES (ANGSTROEM)
---------------------------------
  C     -0.877758   -0.745566   -1.528263
  C     -1.693562   -0.449057   -0.339976
  C      0.366164   -0.303588   -1.770356
  C     -1.235996   -0.137588    0.882696
  H      0.902742   -0.592336   -2.678104
  H      0.885077    0.369701   -1.080474
  H     -1.360979   -1.376860   -2.284822
  H     -2.779327   -0.512909   -0.487493
  H     -0.165386   -0.106731    1.108760
  H     -1.922331    0.085479    1.704285

 Total Charge           Charge          ....    0
 Multiplicity           Mult            ....    1
 Number of Electrons    NEL             ....   30
 Basis Dimension        Dim             ....   86

ORBITAL ENERGIES
----------------

  NO   OCC          E(Eh)            E(eV)
   0   2.0000     -10.192249      -277.3452
   1   2.0000     -10.192161      -277.3428
   2   2.0000     -10.185373      -277.1581
   3   2.0000     -10.185333      -277.1570
   4   2.0000      -0.792579       -21.5672
   5   2.0000      -0.717458       -19.5230
   6   2.0000      -0.610009       -16.5992
   7   2.0000      -0.520729       -14.1698
   8   2.0000      -0.485959       -13.2236
   9   2.0000      -0.436512       -11.8781
  10   2.0000      -0.420069       -11.4307
  11   2.0000      -0.364535        -9.9195
  12   2.0000      -0.347277        -9.4499
  13   2.0000      -0.313942        -8.5428
  14   2.0000      -0.236170        -6.4265
  15   0.0000      -0.033480        -0.9110
  16   0.0000       0.066643         1.8135
  17   0.0000       0.078945         2.1482
  18   0.0000       0.089119         2.4251
  19   0.0000       0.107882         2.9356

MULLIKEN ATOMIC CHARGES
-----------------------
   0 C :   -0.017422
   1 C :   -0.017477
   2 C :   -0.025480
   3 C :   -0.025394
   4 H :    0.023632
   5 H :    0.019259
   6 H :    0.000004
   7 H :   -0.000019
   8 H :    0.019098
   9 H :    0.023799
Sum of atomic charges:    0.0000000

LOEWDIN ATOMIC CHARGES
----------------------
   0 C :   -0.034503
   1 C :   -0.034490
   2 C :   -0.040927
   3 C :   -0.040993
   4 H :    0.025373
   5 H :    0.022082
   6 H :    0.027986
   7 H :    0.027993
   8 H :    0.022026
   9 H :    0.025452

  Mayer bond orders larger than 0.100000
B(  0-C ,  1-C ) :   1.0831 B(  0-C ,  2-C ) :   1.9612 B(  0-C ,  6-H ) :   0.9546
B(  1-C ,  3-C ) :   1.9613 B(  1-C ,  7-H ) :   0.9545 B(  2-C ,  4-H ) :   0.9487
B(  2-C ,  5-H ) :   0.9526 B(  3-C ,  8-H ) :   0.9525 B(  3-C ,  9-H ) :   0.9487

FINAL SINGLE POINT ENERGY      -155.766373407085

DIPOLE MOMENT
-------------
                                X             Y             Z
Electronic contribution:     -0.63156      -0.28003      -0.36432
Nuclear contribution   :      0.60123       0.26668       0.34664
                        -----------------------------------------
Total Dipole Moment    :     -0.03033      -0.01335      -0.01768
                        -----------------------------------------
Magnitude (a.u.)       :      0.03756
Magnitude (Debye)      :      0.09546

VIBRATIONAL FREQUENCIES
-----------------------

Scaling factor for frequencies =  1.000000000  (already applied!)

   0:         0.00 cm**-1
   1:         0.00 cm**-1
   2:         0.00 cm**-1
   3:         0.00 cm**-1
   4:         0.00 cm**-1
   5:         0.00 cm**-1
   6:       137.16 cm**-1
   7:       276.58 cm**-1
   8:       483.86 cm**-1
   9:       603.99 cm**-1
  10:       753.50 cm**-1
  11:       884.72 cm**-1
  12:       937.55 cm**-1
  13:       938.96 cm**-1
  14:      1023.13 cm**-1
  15:      1029.93 cm**-1
  16:      1060.00 cm**-1
  17:      1095.23 cm**-1
  18:      1296.47 cm**-1
  19:      1331.59 cm**-1
  20:      1413.98 cm**-1
  21:      1444.62 cm**-1
  22:      1685.43 cm**-1
  23:      1703.14 cm**-1
  24:      3126.79 cm**-1
  25:      3133.09 cm**-1
  26:      3136.46 cm**-1
  27:      3145.23 cm**-1
  28:      3230.81 cm**-1
  29:      3232.54 cm**-1

IR SPECTRUM
-----------

 Mode   freq       eps      Int      T**2         TX        TY        TZ
       cm**-1   L/(mol*cm) km/mol    a.u.
----------------------------------------------------------------------------
  6:    137.16   0.000063    0.32  0.000143  ( 0.009381  0.004762  0.005647)
  7:    276.58   0.000000    0.00  0.000000  ( 0.000120  0.000080  0.000244)
  8:    483.86   0.002310   11.67  0.001490  (-0.001477 -0.029246  0.025149)
  9:    603.99   0.001189    6.01  0.000614  (-0.010860  0.022218  0.001697)
 10:    753.50   0.000390    1.97  0.000162  (-0.010362 -0.004333 -0.005950)
 11:    884.72   0.000065    0.33  0.000023  (-0.003880 -0.001732 -0.002222)
 12:    937.55   0.000682    3.45  0.000227  ( 0.012177 -0.000034  0.008880)
 13:    938.96   0.013438   67.91  0.004466  (-0.007995  0.059600 -0.029154)
 14:   1023.13   0.000162    0.82  0.000049  ( 0.005885  0.001944  0.003314)
 15:   1029.93   0.004126   20.85  0.001250  (-0.004773  0.031486 -0.015363)
 16:   1060.00   0.000000    0.00  0.000000  ( 0.000138 -0.000001  0.000022)
 17:   1095.23   0.001245    6.29  0.000355  ( 0.010711 -0.005124 -0.014618)
 18:   1296.47   0.000046    0.23  0.000011  ( 0.000722  0.002181 -0.002431)
 19:   1331.59   0.000088    0.45  0.000021  ( 0.003476  0.001727  0.002373)
 20:   1413.98   0.000526    2.66  0.000116  ( 0.005422  0.000380 -0.009307)
 21:   1444.62   0.001483    7.50  0.000320  ( 0.014485  0.006381  0.008362)
 22:   1685.43   0.000368    1.86  0.000068  (-0.006646 -0.002985 -0.003892)
 23:   1703.14   0.000438    2.21  0.000080  (-0.003408 -0.002504  0.007892)
 24:   3126.79   0.001463    7.39  0.000146  ( 0.008200 -0.005607 -0.006880)
 25:   3133.09   0.004036   20.40  0.000402  (-0.015755 -0.007644 -0.009764)
 26:   3136.46   0.001147    5.80  0.000114  (-0.005546  0.000400  0.009121)
 27:   3145.23   0.001095    5.53  0.000109  ( 0.008217  0.003827  0.005147)
 28:   3230.81   0.002233   11.29  0.000216  (-0.010378  0.004855  0.009191)
 29:   3232.54   0.001018    5.15  0.000098  (-0.005585 -0.004650 -0.006745)

--------------------------
THERMOCHEMISTRY AT 298.15K
--------------------------

Temperature         ... 298.15 K
Pressure            ... 1.00 atm
Total Mass          ... 54.09 AMU

Throughout the following assumptions are being made:
  (1) The electronic state is orbitally nondegenerate
  (2) There are no thermally accessible electronically excited states
  (3) Hindered rotations indicated by low frequency modes are not
      treated as such but are treated as vibrations and this may
      cause some error
  (4) All equations used are the standard statistical mechanics
      equations for an ideal gas
  (5) All vibrations are strictly harmonic

freq.     137.16  E(vib)   ...       0.42
freq.     276.58  E(vib)   ...       0.28
freq.     483.86  E(vib)   ...       0.15
freq.     603.99  E(vib)   ...       0.10
freq.     753.50  E(vib)   ...       0.06
freq.     884.72  E(vib)   ...       0.04
freq.     937.55  E(vib)   ...       0.03
freq.     938.96  E(vib)   ...       0.03
freq.    1023.13  E(vib)   ...       0.02
freq.    1029.93  E(vib)   ...       0.02
freq.    1060.00  E(vib)   ...       0.02
freq.    1095.23  E(vib)   ...       0.02
freq.    1296.47  E(vib)   ...       0.01
freq.    1331.59  E(vib)   ...       0.01
freq.    1413.98  E(vib)   ...       0.00
freq.    1444.62  E(vib)   ...       0.00
freq.    1685.43  E(vib)   ...       0.00
freq.    1703.14  E(vib)   ...       0.00
freq.    3126.79  E(vib)   ...       0.00
freq.    3133.09  E(vib)   ...       0.00
freq.    3136.46  E(vib)   ...       0.00
freq.    3145.23  E(vib)   ...       0.00
freq.    3230.81  E(vib)   ...       0.00
freq.    3232.54  E(vib)   ...       0.00

------------
INNER ENERGY
------------

The inner energy is: U= E(el) + E(ZPE) + E(vib) + E(rot) + E(trans)
    E(el)   - is the total energy from the electronic structure calculation
              = E(kin-el) + E(nuc-el) + E(el-el) + E(nuc-nuc)
    E(ZPE)  - the the zero temperature vibrational energy from the frequency calculation
    E(vib)  - the the finite temperature correction to E(ZPE) due to population
              of excited vibrational states
    E(rot)  - is the rotational thermal energy
    E(trans)- is the translational thermal energy

Summary of contributions to the inner energy U:
Electronic energy                ...   -155.76637341 Eh
Zero point energy                ...      0.08453083 Eh      53.04 kcal/mol
Thermal vibrational correction   ...      0.00191377 Eh       1.20 kcal/mol
Thermal rotational correction    ...      0.00141627 Eh       0.89 kcal/mol
Thermal translational correction ...      0.00141627 Eh       0.89 kcal/mol
-----------------------------------------------------------------------
Total thermal energy                   -155.67709627 Eh

Summary of corrections to the electronic energy:
(perhaps to be used in another calculation)
Total thermal correction                  0.00474631 Eh       2.98 kcal/mol
Non-thermal (ZPE) correction              0.08453083 Eh      53.04 kcal/mol
-----------------------------------------------------------------------
Total correction                          0.08927714 Eh      56.02 kcal/mol

--------
ENTHALPY
--------

The enthalpy is H = U + kB*T
                kB is Boltzmann's constant
Total free energy                 ...   -155.67709627 Eh
Thermal Enthalpy correction       ...      0.00094421 Eh       0.59 kcal/mol
-----------------------------------------------------------------------
Total Enthalpy                    ...   -155.67615206 Eh

Note: Only C1 symmetry has been detected, increase convergence thresholds
      if your molecule has a higher symmetry. Symmetry factor of 1.0 is
      used for the rotational entropy correction.

Note: Rotational entropy computed according to Herzberg
Infrared and Raman Spectra, Chapter V,1, Van Nostrand Reinhold, 1945
Point Group:  C1, Symmetry Number:   1
Rotational constants in cm-1:     0.715102     0.185464     0.149432

Vibrational entropy computed according to the QRRHO of S. Grimme
Chem.Eur.J. 2012 18 9955

-------
ENTROPY
-------

The entropy contributions are T*S = T*(S(el)+S(vib)+S(rot)+S(trans))
     S(el)   - electronic entropy
     S(vib)  - vibrational entropy
     S(rot)  - rotational entropy
     S(trans)- translational entropy
The entropies will be listed as multiplied by the temperature to get
units of energy

Electronic entropy                ...      0.00000000 Eh      0.00 kcal/mol
Vibrational entropy               ...      0.00309631 Eh      1.94 kcal/mol
Rotational entropy                ...      0.01136194 Eh      7.13 kcal/mol
Translational entropy             ...      0.01800097 Eh     11.30 kcal/mol
-----------------------------------------------------------------------
Final entropy term                ...      0.03245922 Eh     20.37 kcal/mol

In case the symmetry of your molecule has not been determined correctly
or in case you have a reason to use a different symmetry number we print
out the resulting rotational entropy values for sn=1,12 :
 --------------------------------------------------------
|  sn= 1 | S(rot)=       0.01136194 Eh      7.13 kcal/mol|
|  sn= 2 | S(rot)=       0.01070749 Eh      6.72 kcal/mol|
|  sn= 3 | S(rot)=       0.01032465 Eh      6.48 kcal/mol|
|  sn= 4 | S(rot)=       0.01005303 Eh      6.31 kcal/mol|
|  sn= 5 | S(rot)=       0.00984234 Eh      6.18 kcal/mol|
|  sn= 6 | S(rot)=       0.00967020 Eh      6.07 kcal/mol|
|  sn= 7 | S(rot)=       0.00952465 Eh      5.98 kcal/mol|
|  sn= 8 | S(rot)=       0.00939857 Eh      5.90 kcal/mol|
|  sn= 9 | S(rot)=       0.00928737 Eh      5.83 kcal/mol|
|  sn=10 | S(rot)=       0.00918789 Eh      5.77 kcal/mol|
|  sn=11 | S(rot)=       0.00909790 Eh      5.71 kcal/mol|
|  sn=12 | S(rot)=       0.00901574 Eh      5.66 kcal/mol|
 --------------------------------------------------------

-------------------
GIBBS FREE ENERGY
-------------------

The Gibbs free energy is G = H - T*S

Total enthalpy                    ...   -155.67615206 Eh
Total entropy correction          ...     -0.03245922 Eh    -20.37 kcal/mol
-----------------------------------------------------------------------
Final Gibbs free energy         ...   -155.70861128 Eh

For completeness - the Gibbs free energy minus the electronic energy
G-E(el)                           ...      0.05776213 Eh     36.25 kcal/mol

                             ****ORCA TERMINATED NORMALLY****
TOTAL RUN TIME: 0 days 0 hours 1 minutes 3 seconds 374 msec
