                         Program Version 5.0.4 -  RELEASE  -
|  1> !B3LYP DEF2-SVP Opt
|  2> * xyz 0 1
|  3> C       -0.923023801     -0.792202589     -1.709766075
|  4> C       -2.147795801     -0.263440400     -0.532545922
|  5> C        0.670070539     -0.423872967     -2.062566270
|  6> C       -1.375333363     -0.040285263      1.222966903
|  7> H        1.399704615     -0.560967156     -3.235441748
|  8> H        1.783470115      0.076253313     -1.506472480
|  9> H       -1.797317136     -1.375632603     -2.777138626
| 10> H       -3.139607639     -1.192075345     -0.846470026
| 11> H       -0.367497777      0.542406640      2.156214248
| 12> H       -1.984024722      0.260360156      2.817473833
| 13> **                         ****END OF INPUT****
 Total Charge           Charge          ....    0
 Multiplicity           Mult            ....    1
 Number of Electrons    NEL             ....   30
FINAL SINGLE POINT ENERGY      -155.137333405887
FINAL SINGLE POINT ENERGY      -155.233668079033
FINAL SINGLE POINT ENERGY      -155.327509157936
FINAL SINGLE POINT ENERGY      -155.416002641578
FINAL SINGLE POINT ENERGY      -155.497023943809
FINAL SINGLE POINT ENERGY      -155.568929487515
FINAL SINGLE POINT ENERGY      -155.629272686245
FINAL SINGLE POINT ENERGY      -155.675319400931
FINAL SINGLE POINT ENERGY      -155.708348843629
FINAL SINGLE POINT ENERGY      -155.731775074845
FINAL SINGLE POINT ENERGY      -155.766025253703
FINAL SINGLE POINT ENERGY      -155.765416948047
FINAL SINGLE POINT ENERGY      -155.766098795530
FINAL SINGLE POINT ENERGY      -155.765233280893
FINAL SINGLE POINT ENERGY      -155.766360038506
FINAL SINGLE POINT ENERGY      -155.766350076931
FINAL SINGLE POINT ENERGY      -155.766372442020
FINAL SINGLE POINT ENERGY      -155.766372213329
FINAL SINGLE POINT ENERGY      -155.766373411086
                    ***********************HURRAY********************

CARTESIAN COORDINATES (ANGSTROEM)
---------------------------------
  C     -0.877723   -0.746095   -1.528037
  C     -1.693781   -0.449258   -0.339929
  C      0.365979   -0.303336   -1.770287
  C     -1.236058   -0.137816    0.882725
  H      0.903127   -0.592402   -2.677981
  H      0.884319    0.370129   -1.080317
  H     -1.360965   -1.377057   -2.284713
  H     -2.779104   -0.512105   -0.487663
  H     -0.165126   -0.107042    1.108383
  H     -1.922022    0.085524    1.704074

 Multiplicity           Mult            ....    1
 Number of Electrons    NEL             ....   30
 Basis Dimension        Dim             ....   86

ORBITAL ENERGIES
----------------

  NO   OCC          E(Eh)            E(eV)
   0   2.0000     -10.192248      -277.3452
   1   2.0000     -10.192150      -277.3425
   2   2.0000     -10.185394      -277.1587
   3   2.0000     -10.185330      -277.1569
   4   2.0000      -0.792584       -21.5673
   5   2.0000      -0.717448       -19.5227
   6   2.0000      -0.610009       -16.5992
   7   2.0000      -0.520752       -14.1704
   8   2.0000      -0.485985       -13.2243
   9   2.0000      -0.436478       -11.8772
  10   2.0000      -0.420093       -11.4313
  11   2.0000      -0.364576        -9.9206
  12   2.0000      -0.347301        -9.4506
  13   2.0000      -0.313908        -8.5419
  14   2.0000      -0.236173        -6.4266
  15   0.0000      -0.033467        -0.9107
  16   0.0000       0.066636         1.8133
  17   0.0000       0.078937         2.1480
  18   0.0000       0.089128         2.4253
  19   0.0000       0.107896         2.9360

MULLIKEN ATOMIC CHARGES
-----------------------
   0 C :   -0.017375
   1 C :   -0.017415
   2 C :   -0.025566
   3 C :   -0.025301
   4 H :    0.023730
   5 H :    0.019245
   6 H :   -0.000035
   7 H :   -0.000152
   8 H :    0.019172
   9 H :    0.023697
Sum of atomic charges:    0.0000000

LOEWDIN ATOMIC CHARGES
----------------------
   0 C :   -0.034450
   1 C :   -0.034421
   2 C :   -0.040967
   3 C :   -0.040960
   4 H :    0.025433
   5 H :    0.022057
   6 H :    0.027950
   7 H :    0.027907
   8 H :    0.022083
   9 H :    0.025368

  Mayer bond orders larger than 0.100000
B(  0-C ,  1-C ) :   1.0830 B(  0-C ,  2-C ) :   1.9612 B(  0-C ,  6-H ) :   0.9546
B(  1-C ,  3-C ) :   1.9613 B(  1-C ,  7-H ) :   0.9546 B(  2-C ,  4-H ) :   0.9487
B(  2-C ,  5-H ) :   0.9526 B(  3-C ,  8-H ) :   0.9525 B(  3-C ,  9-H ) :   0.9487

FINAL SINGLE POINT ENERGY      -155.766373365351

DIPOLE MOMENT
-------------
                                X             Y             Z
Electronic contribution:     -0.63270      -0.28118      -0.36361
Nuclear contribution   :      0.60213       0.26815       0.34587
                        -----------------------------------------
Total Dipole Moment    :     -0.03057      -0.01302      -0.01774
                        -----------------------------------------
Magnitude (a.u.)       :      0.03766
Magnitude (Debye)      :      0.09573

Rotational constants in cm-1:     0.715021     0.185477     0.149445
Rotational constants in MHz : 21435.786273  5560.464050  4480.234102

                             ****ORCA TERMINATED NORMALLY****
TOTAL RUN TIME: 0 days 0 hours 7 minutes 7 seconds 902 msec
