                         Program Version 5.0.4 -  RELEASE  -
|  1> !B3LYP DEF2-SVP Opt
|  2> * xyz 0 1
|  3> C       -0.373885602      0.000000000     -0.469939086
|  4> H       -0.364967366      0.000000000     -1.592845188
|  5> H       -2.362046135      0.000000000      0.349413023
|  6> H       -2.413873331      0.000000000      2.378738450
|  7> H        0.681942007      0.000000000     -0.419274600
|  8> H       -0.315638760      0.000000000      4.199011026
|  9> H        0.850930828      0.000000000      3.248755045
| 10> C       -1.409872919      0.000000000      0.573395571
| 11> C       -1.405457094      0.000000000      2.024693140
| 12> C       -0.233976910      0.000000000      3.158929484
| 13> *
| 14>
| 15>                          ****END OF INPUT****
 Total Charge           Charge          ....    0
 Multiplicity           Mult            ....    1
 Number of Electrons    NEL             ....   30
FINAL SINGLE POINT ENERGY      -155.633477335880
FINAL SINGLE POINT ENERGY      -155.699486169355
FINAL SINGLE POINT ENERGY      -155.742486772007
FINAL SINGLE POINT ENERGY      -155.759050021463
FINAL SINGLE POINT ENERGY      -155.764593133156
FINAL SINGLE POINT ENERGY      -155.765884725321
FINAL SINGLE POINT ENERGY      -155.766047051848
FINAL SINGLE POINT ENERGY      -155.766072468198
FINAL SINGLE POINT ENERGY      -155.766073870314
                    ***********************HURRAY********************

CARTESIAN COORDINATES (ANGSTROEM)
---------------------------------
  C     -0.303556   -0.000041   -0.210780
  H     -0.435081    0.000215   -1.296021
  H     -2.361984    0.000318    0.162379
  H     -2.341031   -0.000145    2.556032
  H      0.726942   -0.000325    0.158540
  H     -0.390133    0.000563    3.980324
  H      0.747636    0.000424    2.506735
  C     -1.363030    0.000004    0.614010
  C     -1.350046   -0.000332    2.086634
  C     -0.276563   -0.000681    2.893024

 Multiplicity           Mult            ....    1
 Number of Electrons    NEL             ....   30
 Basis Dimension        Dim             ....   86

ORBITAL ENERGIES
----------------

  NO   OCC          E(Eh)            E(eV)
   0   2.0000     -10.191964      -277.3375
   1   2.0000     -10.191901      -277.3357
   2   2.0000     -10.185641      -277.1654
   3   2.0000     -10.185579      -277.1637
   4   2.0000      -0.791761       -21.5449
   5   2.0000      -0.717818       -19.5328
   6   2.0000      -0.611640       -16.6436
   7   2.0000      -0.519923       -14.1478
   8   2.0000      -0.486896       -13.2491
   9   2.0000      -0.438905       -11.9432
  10   2.0000      -0.415928       -11.3180
  11   2.0000      -0.359048        -9.7702
  12   2.0000      -0.348516        -9.4836
  13   2.0000      -0.322524        -8.7763
  14   2.0000      -0.233240        -6.3468
  15   0.0000      -0.039059        -1.0629
  16   0.0000       0.070017         1.9053
  17   0.0000       0.082640         2.2488
  18   0.0000       0.085141         2.3168
  19   0.0000       0.109543         2.9808

MULLIKEN ATOMIC CHARGES
-----------------------
   0 C :   -0.021340
   1 H :    0.024371
   2 H :   -0.006215
   3 H :   -0.006111
   4 H :    0.015947
   5 H :    0.024358
   6 H :    0.015933
   7 C :   -0.012657
   8 C :   -0.012789
   9 C :   -0.021496
Sum of atomic charges:   -0.0000000

LOEWDIN ATOMIC CHARGES
----------------------
   0 C :   -0.038190
   1 H :    0.026208
   2 H :    0.027256
   3 H :    0.027300
   4 H :    0.021099
   5 H :    0.026221
   6 H :    0.021079
   7 C :   -0.036355
   8 C :   -0.036381
   9 C :   -0.038238

  Mayer bond orders larger than 0.100000
B(  0-C ,  1-H ) :   0.9478 B(  0-C ,  4-H ) :   0.9489 B(  0-C ,  7-C ) :   1.9524
B(  0-C ,  9-C ) :   0.1099 B(  2-H ,  7-C ) :   0.9588 B(  3-H ,  8-C ) :   0.9587
B(  5-H ,  9-C ) :   0.9478 B(  6-H ,  9-C ) :   0.9490 B(  7-C ,  8-C ) :   1.1026
B(  8-C ,  9-C ) :   1.9525

FINAL SINGLE POINT ENERGY      -155.766074020392

DIPOLE MOMENT
-------------
                                X             Y             Z
Electronic contribution:     -0.75880      -0.00151       0.00540
Nuclear contribution   :      0.73840       0.00219      -0.00528
                        -----------------------------------------
Total Dipole Moment    :     -0.02039       0.00068       0.00011
                        -----------------------------------------
Magnitude (a.u.)       :      0.02041
Magnitude (Debye)      :      0.05187

Rotational constants in cm-1:     0.714122     0.186101     0.147629
Rotational constants in MHz : 21408.839114  5579.177629  4425.805853

                             ****ORCA TERMINATED NORMALLY****
TOTAL RUN TIME: 0 days 0 hours 2 minutes 5 seconds 950 msec
